REMARK  6 active torsions:
REMARK  status: ('A' for Active; 'I' for Inactive)
REMARK    1  A    between atoms: O2_2  and  C12_12 
REMARK    2  A    between atoms: O3_3  and  C14_14 
REMARK    3  A    between atoms: O5_5  and  C16_16 
REMARK    4  A    between atoms: O6_6  and  C20_20 
REMARK    5  A    between atoms: O7_7  and  C22_22 
REMARK    6  A    between atoms: C10_10  and  C11_11 
ROOT
HETATM    1  O1  UNK     0      -0.326  -0.866  -0.125  1.00  0.00    -0.305 OA
HETATM    2  O4  UNK     0      -2.041   2.825   0.085  1.00  0.00    -0.284 OA
HETATM    3  C8  UNK     0      -2.336   0.486   0.023  1.00  0.00     0.086 A 
HETATM    4  C9  UNK     0      -1.689  -0.746  -0.052  1.00  0.00     0.107 A 
HETATM    5  C10 UNK     0       0.442   0.288  -0.110  1.00  0.00     0.125 A 
HETATM    6  C12 UNK     0      -0.058   1.536  -0.049  1.00  0.00     0.152 A 
HETATM    7  C13 UNK     0      -1.528   1.715   0.026  1.00  0.00     0.223 A 
HETATM    8  C14 UNK     0      -3.730   0.547   0.094  1.00  0.00     0.096 A 
HETATM    9  C15 UNK     0      -2.433  -1.926  -0.059  1.00  0.00     0.049 A 
HETATM   10  C16 UNK     0      -3.826  -1.869   0.012  1.00  0.00     0.093 A 
HETATM   11  C18 UNK     0      -4.472  -0.634   0.088  1.00  0.00     0.048 A 
ENDROOT
BRANCH   5  12
HETATM   12  C11 UNK     0       1.888   0.018  -0.193  1.00  0.00     0.027 A 
HETATM   13  C19 UNK     0       2.509  -0.077  -1.439  1.00  0.00     0.004 A 
HETATM   14  C21 UNK     0       3.878  -0.333  -1.518  1.00  0.00     0.026 A 
HETATM   15  C22 UNK     0       4.626  -0.494  -0.352  1.00  0.00     0.112 A 
HETATM   16  C20 UNK     0       4.005  -0.400   0.894  1.00  0.00     0.112 A 
HETATM   17  C17 UNK     0       2.636  -0.143   0.973  1.00  0.00     0.028 A 
BRANCH  15  18
HETATM   18  O7  UNK     0       5.962  -0.746  -0.442  1.00  0.00    -0.357 OA
HETATM   19  H32 UNK     0       6.271  -1.170   0.374  1.00  0.00     0.217 HD
ENDBRANCH  15  18
BRANCH  16  20
HETATM   20  O6  UNK     0       4.726  -0.554   2.039  1.00  0.00    -0.357 OA
HETATM   21  H31 UNK     0       5.664  -0.375   1.863  1.00  0.00     0.217 HD
ENDBRANCH  16  20
ENDBRANCH   5  12
BRANCH   6  22
HETATM   22  O2  UNK     0       0.732   2.665  -0.069  1.00  0.00    -0.355 OA
HETATM   23  H28 UNK     0       1.667   2.412  -0.123  1.00  0.00     0.218 HD
ENDBRANCH   6  22
BRANCH   8  24
HETATM   24  O3  UNK     0      -4.411   1.725   0.169  1.00  0.00    -0.359 OA
HETATM   25  H29 UNK     0      -3.796   2.474   0.170  1.00  0.00     0.217 HD
ENDBRANCH   8  24
BRANCH  10  26
HETATM   26  O5  UNK     0      -4.554  -3.018   0.006  1.00  0.00    -0.359 OA
HETATM   27  H30 UNK     0      -5.499  -2.794   0.060  1.00  0.00     0.217 HD
ENDBRANCH  10  26
TORSDOF 6
