REMARK  5 active torsions:
REMARK  status: ('A' for Active; 'I' for Inactive)
REMARK    1  A    between atoms: O1_1  and  C10_10 
REMARK    2  A    between atoms: O2_2  and  C11_11 
REMARK    3  A    between atoms: O3_3  and  C17_17 
REMARK    4  A    between atoms: C4_4  and  C6_6 
REMARK    5  A    between atoms: C5_5  and  C7_7 
ROOT
HETATM    1  C4          0      -1.732  -0.254   0.044  1.00  0.00    -0.031 A 
HETATM    2  C8          0      -2.224   1.028   0.226  1.00  0.00     0.048 A 
HETATM    3  C9          0      -2.581  -1.329  -0.165  1.00  0.00     0.048 A 
HETATM    4  C10         0      -3.959  -1.116  -0.192  1.00  0.00     0.069 A 
HETATM    5  C11         0      -3.602   1.241   0.199  1.00  0.00     0.069 A 
HETATM    6  C14         0      -4.470   0.169  -0.010  1.00  0.00     0.073 A 
ENDROOT
BRANCH   1   7
HETATM    7  C6          0      -0.276  -0.479   0.074  1.00  0.00     0.012 C 
HETATM    8  C7          0       0.665   0.475  -0.115  1.00  0.00     0.012 C 
BRANCH   8   9
HETATM    9  C5          0       2.102   0.257  -0.066  1.00  0.00    -0.036 A 
HETATM   10  C12         0       2.616  -0.865   0.582  1.00  0.00     0.014 A 
HETATM   11  C15         0       3.994  -1.074   0.629  1.00  0.00     0.037 A 
HETATM   12  C17         0       4.859  -0.160   0.027  1.00  0.00     0.065 A 
HETATM   13  C16         0       4.345   0.963  -0.621  1.00  0.00     0.037 A 
HETATM   14  C13         0       2.967   1.172  -0.668  1.00  0.00     0.014 A 
BRANCH  12  15
HETATM   15  O3          0       6.204  -0.363   0.073  1.00  0.00    -0.361 OA
HETATM   16  H29         0       6.381  -1.186   0.560  1.00  0.00     0.217 HD
ENDBRANCH  12  15
ENDBRANCH   8   9
ENDBRANCH   1   7
BRANCH   5  17
HETATM   17  O2          0      -4.101   2.495   0.378  1.00  0.00    -0.361 OA
HETATM   18  H28         0      -5.072   2.458   0.329  1.00  0.00     0.217 HD
ENDBRANCH   5  17
BRANCH   4  19
HETATM   19  O1          0      -4.806  -2.162  -0.397  1.00  0.00    -0.361 OA
HETATM   20  H27         0      -4.283  -2.975  -0.503  1.00  0.00     0.217 HD
ENDBRANCH   4  19
TORSDOF 5
